<UPF version="2.0.1">
<PP_INFO>
Generated using ONCVPSP code by D. R. Hamann
This is a simplified pseudopotential for testing purposes.
Silicon, 4 valence electrons
</PP_INFO>
<PP_HEADER
  generated="ONCVPSP test"
  author="Test"
  date="2024"
  comment="Si test pseudopotential for DFT-PW code"
  element="Si"
  pseudo_type="NC"
  relativistic="scalar"
  is_ultrasoft="F"
  is_paw="F"
  is_coulomb="F"
  has_so="F"
  has_wfc="F"
  has_gipaw="F"
  paw_as_gipaw="F"
  core_correction="F"
  functional="PBE"
  z_valence="4.0"
  total_psenergy="-7.85"
  wfc_cutoff="10.0"
  rho_cutoff="40.0"
  l_max="1"
  l_max_rho="0"
  l_local="1"
  mesh_size="600"
  number_of_wfc="2"
  number_of_proj="2"
/>
<PP_MESH>
<PP_R type="real" size="600">
  0.00000000E+00  1.00000000E-03  2.00000000E-03  3.00000000E-03  4.00000000E-03
  5.00000000E-03  6.00000000E-03  7.00000000E-03  8.00000000E-03  9.00000000E-03
  1.00000000E-02  1.10000000E-02  1.20000000E-02  1.30000000E-02  1.40000000E-02
  1.50000000E-02  1.60000000E-02  1.70000000E-02  1.80000000E-02  1.90000000E-02
  2.00000000E-02  2.10000000E-02  2.20000000E-02  2.30000000E-02  2.40000000E-02
  2.50000000E-02  2.60000000E-02  2.70000000E-02  2.80000000E-02  2.90000000E-02
  3.00000000E-02  3.10000000E-02  3.20000000E-02  3.30000000E-02  3.40000000E-02
  3.50000000E-02  3.60000000E-02  3.70000000E-02  3.80000000E-02  3.90000000E-02
  4.00000000E-02  4.10000000E-02  4.20000000E-02  4.30000000E-02  4.40000000E-02
  4.50000000E-02  4.60000000E-02  4.70000000E-02  4.80000000E-02  4.90000000E-02
  5.00000000E-02  5.25000000E-02  5.50000000E-02  5.75000000E-02  6.00000000E-02
  6.25000000E-02  6.50000000E-02  6.75000000E-02  7.00000000E-02  7.25000000E-02
  7.50000000E-02  7.75000000E-02  8.00000000E-02  8.25000000E-02  8.50000000E-02
  8.75000000E-02  9.00000000E-02  9.25000000E-02  9.50000000E-02  9.75000000E-02
  1.00000000E-01  1.05000000E-01  1.10000000E-01  1.15000000E-01  1.20000000E-01
  1.25000000E-01  1.30000000E-01  1.35000000E-01  1.40000000E-01  1.45000000E-01
  1.50000000E-01  1.55000000E-01  1.60000000E-01  1.65000000E-01  1.70000000E-01
  1.75000000E-01  1.80000000E-01  1.85000000E-01  1.90000000E-01  1.95000000E-01
  2.00000000E-01  2.10000000E-01  2.20000000E-01  2.30000000E-01  2.40000000E-01
  2.50000000E-01  2.60000000E-01  2.70000000E-01  2.80000000E-01  2.90000000E-01
  3.00000000E-01  3.10000000E-01  3.20000000E-01  3.30000000E-01  3.40000000E-01
  3.50000000E-01  3.60000000E-01  3.70000000E-01  3.80000000E-01  3.90000000E-01
  4.00000000E-01  4.20000000E-01  4.40000000E-01  4.60000000E-01  4.80000000E-01
  5.00000000E-01  5.20000000E-01  5.40000000E-01  5.60000000E-01  5.80000000E-01
  6.00000000E-01  6.20000000E-01  6.40000000E-01  6.60000000E-01  6.80000000E-01
  7.00000000E-01  7.20000000E-01  7.40000000E-01  7.60000000E-01  7.80000000E-01
  8.00000000E-01  8.20000000E-01  8.40000000E-01  8.60000000E-01  8.80000000E-01
  9.00000000E-01  9.20000000E-01  9.40000000E-01  9.60000000E-01  9.80000000E-01
  1.00000000E+00  1.05000000E+00  1.10000000E+00  1.15000000E+00  1.20000000E+00
  1.25000000E+00  1.30000000E+00  1.35000000E+00  1.40000000E+00  1.45000000E+00
  1.50000000E+00  1.55000000E+00  1.60000000E+00  1.65000000E+00  1.70000000E+00
  1.75000000E+00  1.80000000E+00  1.85000000E+00  1.90000000E+00  1.95000000E+00
  2.00000000E+00  2.10000000E+00  2.20000000E+00  2.30000000E+00  2.40000000E+00
  2.50000000E+00  2.60000000E+00  2.70000000E+00  2.80000000E+00  2.90000000E+00
  3.00000000E+00  3.10000000E+00  3.20000000E+00  3.30000000E+00  3.40000000E+00
  3.50000000E+00  3.60000000E+00  3.70000000E+00  3.80000000E+00  3.90000000E+00
  4.00000000E+00  4.20000000E+00  4.40000000E+00  4.60000000E+00  4.80000000E+00
  5.00000000E+00  5.20000000E+00  5.40000000E+00  5.60000000E+00  5.80000000E+00
  6.00000000E+00  6.50000000E+00  7.00000000E+00  7.50000000E+00  8.00000000E+00
  8.50000000E+00  9.00000000E+00  9.50000000E+00  1.00000000E+01  1.05000000E+01
</PP_R>
<PP_RAB type="real" size="600">
  1.00000000E-03  1.00000000E-03  1.00000000E-03  1.00000000E-03  1.00000000E-03
  1.00000000E-03  1.00000000E-03  1.00000000E-03  1.00000000E-03  1.00000000E-03
  1.00000000E-03  1.00000000E-03  1.00000000E-03  1.00000000E-03  1.00000000E-03
  1.00000000E-03  1.00000000E-03  1.00000000E-03  1.00000000E-03  1.00000000E-03
  1.00000000E-03  1.00000000E-03  1.00000000E-03  1.00000000E-03  1.00000000E-03
  1.00000000E-03  1.00000000E-03  1.00000000E-03  1.00000000E-03  1.00000000E-03
  1.00000000E-03  1.00000000E-03  1.00000000E-03  1.00000000E-03  1.00000000E-03
  1.00000000E-03  1.00000000E-03  1.00000000E-03  1.00000000E-03  1.00000000E-03
  1.00000000E-03  1.00000000E-03  1.00000000E-03  1.00000000E-03  1.00000000E-03
  1.00000000E-03  1.00000000E-03  1.00000000E-03  1.00000000E-03  1.00000000E-03
  2.50000000E-03  2.50000000E-03  2.50000000E-03  2.50000000E-03  2.50000000E-03
  2.50000000E-03  2.50000000E-03  2.50000000E-03  2.50000000E-03  2.50000000E-03
  2.50000000E-03  2.50000000E-03  2.50000000E-03  2.50000000E-03  2.50000000E-03
  2.50000000E-03  2.50000000E-03  2.50000000E-03  2.50000000E-03  2.50000000E-03
  5.00000000E-03  5.00000000E-03  5.00000000E-03  5.00000000E-03  5.00000000E-03
  5.00000000E-03  5.00000000E-03  5.00000000E-03  5.00000000E-03  5.00000000E-03
  5.00000000E-03  5.00000000E-03  5.00000000E-03  5.00000000E-03  5.00000000E-03
  5.00000000E-03  5.00000000E-03  5.00000000E-03  5.00000000E-03  5.00000000E-03
  1.00000000E-02  1.00000000E-02  1.00000000E-02  1.00000000E-02  1.00000000E-02
  1.00000000E-02  1.00000000E-02  1.00000000E-02  1.00000000E-02  1.00000000E-02
  1.00000000E-02  1.00000000E-02  1.00000000E-02  1.00000000E-02  1.00000000E-02
  1.00000000E-02  1.00000000E-02  1.00000000E-02  1.00000000E-02  1.00000000E-02
  2.00000000E-02  2.00000000E-02  2.00000000E-02  2.00000000E-02  2.00000000E-02
  2.00000000E-02  2.00000000E-02  2.00000000E-02  2.00000000E-02  2.00000000E-02
  2.00000000E-02  2.00000000E-02  2.00000000E-02  2.00000000E-02  2.00000000E-02
  2.00000000E-02  2.00000000E-02  2.00000000E-02  2.00000000E-02  2.00000000E-02
  2.00000000E-02  2.00000000E-02  2.00000000E-02  2.00000000E-02  2.00000000E-02
  2.00000000E-02  2.00000000E-02  2.00000000E-02  2.00000000E-02  2.00000000E-02
  5.00000000E-02  5.00000000E-02  5.00000000E-02  5.00000000E-02  5.00000000E-02
  5.00000000E-02  5.00000000E-02  5.00000000E-02  5.00000000E-02  5.00000000E-02
  5.00000000E-02  5.00000000E-02  5.00000000E-02  5.00000000E-02  5.00000000E-02
  5.00000000E-02  5.00000000E-02  5.00000000E-02  5.00000000E-02  5.00000000E-02
  1.00000000E-01  1.00000000E-01  1.00000000E-01  1.00000000E-01  1.00000000E-01
  1.00000000E-01  1.00000000E-01  1.00000000E-01  1.00000000E-01  1.00000000E-01
  1.00000000E-01  1.00000000E-01  1.00000000E-01  1.00000000E-01  1.00000000E-01
  1.00000000E-01  1.00000000E-01  1.00000000E-01  1.00000000E-01  1.00000000E-01
  2.00000000E-01  2.00000000E-01  2.00000000E-01  2.00000000E-01  2.00000000E-01
  2.00000000E-01  2.00000000E-01  2.00000000E-01  2.00000000E-01  2.00000000E-01
  5.00000000E-01  5.00000000E-01  5.00000000E-01  5.00000000E-01  5.00000000E-01
  5.00000000E-01  5.00000000E-01  5.00000000E-01  5.00000000E-01  5.00000000E-01
</PP_RAB>
</PP_MESH>
<PP_LOCAL type="real" size="600">
  -1.58000000E+01 -1.57999500E+01 -1.57998000E+01 -1.57995500E+01 -1.57992000E+01
  -1.57987500E+01 -1.57982000E+01 -1.57975500E+01 -1.57968000E+01 -1.57959500E+01
  -1.57950000E+01 -1.57939500E+01 -1.57928000E+01 -1.57915500E+01 -1.57902000E+01
  -1.57887500E+01 -1.57872000E+01 -1.57855500E+01 -1.57838000E+01 -1.57819500E+01
  -1.57800000E+01 -1.57779500E+01 -1.57758000E+01 -1.57735500E+01 -1.57712000E+01
  -1.57687500E+01 -1.57662000E+01 -1.57635500E+01 -1.57608000E+01 -1.57579500E+01
  -1.57550000E+01 -1.57519500E+01 -1.57488000E+01 -1.57455500E+01 -1.57422000E+01
  -1.57387500E+01 -1.57352000E+01 -1.57315500E+01 -1.57278000E+01 -1.57239500E+01
  -1.57200000E+01 -1.57159500E+01 -1.57118000E+01 -1.57075500E+01 -1.57032000E+01
  -1.56987500E+01 -1.56942000E+01 -1.56895500E+01 -1.56848000E+01 -1.56799500E+01
  -1.56750000E+01 -1.56617188E+01 -1.56481250E+01 -1.56342188E+01 -1.56200000E+01
  -1.56054688E+01 -1.55906250E+01 -1.55754688E+01 -1.55600000E+01 -1.55442188E+01
  -1.55281250E+01 -1.55117188E+01 -1.54950000E+01 -1.54779688E+01 -1.54606250E+01
  -1.54429688E+01 -1.54250000E+01 -1.54067188E+01 -1.53881250E+01 -1.53692188E+01
  -1.53500000E+01 -1.53106250E+01 -1.52700000E+01 -1.52281250E+01 -1.51850000E+01
  -1.51406250E+01 -1.50950000E+01 -1.50481250E+01 -1.50000000E+01 -1.49506250E+01
  -1.49000000E+01 -1.48481250E+01 -1.47950000E+01 -1.47406250E+01 -1.46850000E+01
  -1.46281250E+01 -1.45700000E+01 -1.45106250E+01 -1.44500000E+01 -1.43881250E+01
  -1.43250000E+01 -1.41950000E+01 -1.40600000E+01 -1.39200000E+01 -1.37750000E+01
  -1.36250000E+01 -1.34700000E+01 -1.33100000E+01 -1.31450000E+01 -1.29750000E+01
  -1.28000000E+01 -1.26200000E+01 -1.24350000E+01 -1.22450000E+01 -1.20500000E+01
  -1.18500000E+01 -1.16450000E+01 -1.14350000E+01 -1.12200000E+01 -1.10000000E+01
  -1.07750000E+01 -1.03100000E+01 -9.82000000E+00 -9.31000000E+00 -8.78000000E+00
  -8.23000000E+00 -7.66000000E+00 -7.07000000E+00 -6.46000000E+00 -5.83000000E+00
  -5.18000000E+00 -4.51000000E+00 -3.82000000E+00 -3.11000000E+00 -2.38000000E+00
  -1.63000000E+00 -8.60000000E-01 -7.00000000E-02  7.40000000E-01  1.57000000E+00
   2.42000000E+00  3.29000000E+00  4.18000000E+00  5.09000000E+00  6.02000000E+00
   6.97000000E+00  7.94000000E+00  8.93000000E+00  9.94000000E+00  1.09700000E+01
   1.20200000E+01  1.42100000E+01  1.65200000E+01  1.89500000E+01  2.15000000E+01
   2.41700000E+01  2.69600000E+01  2.98700000E+01  3.29000000E+01  3.60500000E+01
   3.93200000E+01  4.27100000E+01  4.62200000E+01  4.98500000E+01  5.36000000E+01
   5.74700000E+01  6.14600000E+01  6.55700000E+01  6.98000000E+01  7.41500000E+01
  -4.00000000E+00 -3.80952381E+00 -3.63636364E+00 -3.47826087E+00 -3.33333333E+00
  -3.20000000E+00 -3.07692308E+00 -2.96296296E+00 -2.85714286E+00 -2.75862069E+00
  -2.66666667E+00 -2.58064516E+00 -2.50000000E+00 -2.42424242E+00 -2.35294118E+00
  -2.28571429E+00 -2.22222222E+00 -2.16216216E+00 -2.10526316E+00 -2.05128205E+00
  -2.00000000E+00 -1.90476190E+00 -1.81818182E+00 -1.73913043E+00 -1.66666667E+00
  -1.60000000E+00 -1.53846154E+00 -1.48148148E+00 -1.42857143E+00 -1.37931034E+00
  -1.33333333E+00 -1.23076923E+00 -1.14285714E+00 -1.06666667E+00 -1.00000000E+00
  -9.41176471E-01 -8.88888889E-01 -8.42105263E-01 -8.00000000E-01 -7.61904762E-01
</PP_LOCAL>
<PP_NONLOCAL>
<PP_BETA.1 type="real" size="600" angular_momentum="0">
   0.00000000E+00  1.00000000E-03  2.00000000E-03  3.00000000E-03  4.00000000E-03
   5.00000000E-03  6.00000000E-03  7.00000000E-03  8.00000000E-03  9.00000000E-03
   1.00000000E-02  1.10000000E-02  1.20000000E-02  1.30000000E-02  1.40000000E-02
   1.50000000E-02  1.60000000E-02  1.70000000E-02  1.80000000E-02  1.90000000E-02
   2.00000000E-02  2.10000000E-02  2.20000000E-02  2.30000000E-02  2.40000000E-02
   2.50000000E-02  2.60000000E-02  2.70000000E-02  2.80000000E-02  2.90000000E-02
   3.00000000E-02  3.10000000E-02  3.20000000E-02  3.30000000E-02  3.40000000E-02
   3.50000000E-02  3.60000000E-02  3.70000000E-02  3.80000000E-02  3.90000000E-02
   4.00000000E-02  4.10000000E-02  4.20000000E-02  4.30000000E-02  4.40000000E-02
   4.50000000E-02  4.60000000E-02  4.70000000E-02  4.80000000E-02  4.90000000E-02
   5.00000000E-02  5.21875000E-02  5.43750000E-02  5.65625000E-02  5.87500000E-02
   6.09375000E-02  6.31250000E-02  6.53125000E-02  6.75000000E-02  6.96875000E-02
   7.18750000E-02  7.40625000E-02  7.62500000E-02  7.84375000E-02  8.06250000E-02
   8.28125000E-02  8.50000000E-02  8.71875000E-02  8.93750000E-02  9.15625000E-02
   9.37500000E-02  9.81250000E-02  1.02500000E-01  1.06875000E-01  1.11250000E-01
   1.15625000E-01  1.20000000E-01  1.24375000E-01  1.28750000E-01  1.33125000E-01
   1.37500000E-01  1.41875000E-01  1.46250000E-01  1.50625000E-01  1.55000000E-01
   1.59375000E-01  1.63750000E-01  1.68125000E-01  1.72500000E-01  1.76875000E-01
   1.81250000E-01  1.90000000E-01  1.98750000E-01  2.07500000E-01  2.16250000E-01
   2.25000000E-01  2.33750000E-01  2.42500000E-01  2.51250000E-01  2.60000000E-01
   2.68750000E-01  2.77500000E-01  2.86250000E-01  2.95000000E-01  3.03750000E-01
   3.12500000E-01  3.21250000E-01  3.30000000E-01  3.38750000E-01  3.47500000E-01
   3.56250000E-01  3.43750000E-01  3.31250000E-01  3.18750000E-01  3.06250000E-01
   2.93750000E-01  2.81250000E-01  2.68750000E-01  2.56250000E-01  2.43750000E-01
   2.31250000E-01  2.18750000E-01  2.06250000E-01  1.93750000E-01  1.81250000E-01
   1.68750000E-01  1.56250000E-01  1.43750000E-01  1.31250000E-01  1.18750000E-01
   1.06250000E-01  9.37500000E-02  8.12500000E-02  6.87500000E-02  5.62500000E-02
   4.37500000E-02  3.12500000E-02  1.87500000E-02  6.25000000E-03  0.00000000E+00
   0.00000000E+00  0.00000000E+00  0.00000000E+00  0.00000000E+00  0.00000000E+00
   0.00000000E+00  0.00000000E+00  0.00000000E+00  0.00000000E+00  0.00000000E+00
   0.00000000E+00  0.00000000E+00  0.00000000E+00  0.00000000E+00  0.00000000E+00
   0.00000000E+00  0.00000000E+00  0.00000000E+00  0.00000000E+00  0.00000000E+00
   0.00000000E+00  0.00000000E+00  0.00000000E+00  0.00000000E+00  0.00000000E+00
   0.00000000E+00  0.00000000E+00  0.00000000E+00  0.00000000E+00  0.00000000E+00
   0.00000000E+00  0.00000000E+00  0.00000000E+00  0.00000000E+00  0.00000000E+00
   0.00000000E+00  0.00000000E+00  0.00000000E+00  0.00000000E+00  0.00000000E+00
   0.00000000E+00  0.00000000E+00  0.00000000E+00  0.00000000E+00  0.00000000E+00
   0.00000000E+00  0.00000000E+00  0.00000000E+00  0.00000000E+00  0.00000000E+00
   0.00000000E+00  0.00000000E+00  0.00000000E+00  0.00000000E+00  0.00000000E+00
   0.00000000E+00  0.00000000E+00  0.00000000E+00  0.00000000E+00  0.00000000E+00
</PP_BETA.1>
<PP_BETA.2 type="real" size="600" angular_momentum="1">
   0.00000000E+00  0.00000000E+00  0.00000000E+00  0.00000000E+00  0.00000000E+00
   0.00000000E+00  0.00000000E+00  0.00000000E+00  0.00000000E+00  0.00000000E+00
   0.00000000E+00  0.00000000E+00  0.00000000E+00  0.00000000E+00  0.00000000E+00
   0.00000000E+00  0.00000000E+00  0.00000000E+00  0.00000000E+00  0.00000000E+00
   1.00000000E-03  2.00000000E-03  3.00000000E-03  4.00000000E-03  5.00000000E-03
   6.00000000E-03  7.00000000E-03  8.00000000E-03  9.00000000E-03  1.00000000E-02
   1.10000000E-02  1.20000000E-02  1.30000000E-02  1.40000000E-02  1.50000000E-02
   1.60000000E-02  1.70000000E-02  1.80000000E-02  1.90000000E-02  2.00000000E-02
   2.10000000E-02  2.20000000E-02  2.30000000E-02  2.40000000E-02  2.50000000E-02
   2.60000000E-02  2.70000000E-02  2.80000000E-02  2.90000000E-02  3.00000000E-02
   3.12500000E-02  3.43750000E-02  3.75000000E-02  4.06250000E-02  4.37500000E-02
   4.68750000E-02  5.00000000E-02  5.31250000E-02  5.62500000E-02  5.93750000E-02
   6.25000000E-02  6.56250000E-02  6.87500000E-02  7.18750000E-02  7.50000000E-02
   7.81250000E-02  8.12500000E-02  8.43750000E-02  8.75000000E-02  9.06250000E-02
   9.37500000E-02  1.00000000E-01  1.06250000E-01  1.12500000E-01  1.18750000E-01
   1.25000000E-01  1.31250000E-01  1.37500000E-01  1.43750000E-01  1.50000000E-01
   1.56250000E-01  1.62500000E-01  1.68750000E-01  1.75000000E-01  1.81250000E-01
   1.87500000E-01  1.93750000E-01  2.00000000E-01  2.06250000E-01  2.12500000E-01
   2.18750000E-01  2.31250000E-01  2.43750000E-01  2.56250000E-01  2.68750000E-01
   2.81250000E-01  2.93750000E-01  3.06250000E-01  3.18750000E-01  3.31250000E-01
   3.43750000E-01  3.56250000E-01  3.68750000E-01  3.81250000E-01  3.93750000E-01
   4.06250000E-01  4.18750000E-01  4.31250000E-01  4.43750000E-01  4.56250000E-01
   4.68750000E-01  4.53125000E-01  4.37500000E-01  4.21875000E-01  4.06250000E-01
   3.90625000E-01  3.75000000E-01  3.59375000E-01  3.43750000E-01  3.28125000E-01
   3.12500000E-01  2.96875000E-01  2.81250000E-01  2.65625000E-01  2.50000000E-01
   2.34375000E-01  2.18750000E-01  2.03125000E-01  1.87500000E-01  1.71875000E-01
   1.56250000E-01  1.40625000E-01  1.25000000E-01  1.09375000E-01  9.37500000E-02
   7.81250000E-02  6.25000000E-02  4.68750000E-02  3.12500000E-02  1.56250000E-02
   0.00000000E+00  0.00000000E+00  0.00000000E+00  0.00000000E+00  0.00000000E+00
   0.00000000E+00  0.00000000E+00  0.00000000E+00  0.00000000E+00  0.00000000E+00
   0.00000000E+00  0.00000000E+00  0.00000000E+00  0.00000000E+00  0.00000000E+00
   0.00000000E+00  0.00000000E+00  0.00000000E+00  0.00000000E+00  0.00000000E+00
   0.00000000E+00  0.00000000E+00  0.00000000E+00  0.00000000E+00  0.00000000E+00
   0.00000000E+00  0.00000000E+00  0.00000000E+00  0.00000000E+00  0.00000000E+00
   0.00000000E+00  0.00000000E+00  0.00000000E+00  0.00000000E+00  0.00000000E+00
   0.00000000E+00  0.00000000E+00  0.00000000E+00  0.00000000E+00  0.00000000E+00
   0.00000000E+00  0.00000000E+00  0.00000000E+00  0.00000000E+00  0.00000000E+00
   0.00000000E+00  0.00000000E+00  0.00000000E+00  0.00000000E+00  0.00000000E+00
   0.00000000E+00  0.00000000E+00  0.00000000E+00  0.00000000E+00  0.00000000E+00
   0.00000000E+00  0.00000000E+00  0.00000000E+00  0.00000000E+00  0.00000000E+00
</PP_BETA.2>
<PP_DIJ type="real" size="4">
   7.44661800E+00  0.00000000E+00
   0.00000000E+00  3.85842100E+00
</PP_DIJ>
</PP_NONLOCAL>
<PP_RHOATOM type="real" size="600">
   0.00000000E+00  1.00000000E-06  4.00000000E-06  9.00000000E-06  1.60000000E-05
   2.50000000E-05  3.60000000E-05  4.90000000E-05  6.40000000E-05  8.10000000E-05
   1.00000000E-04  1.21000000E-04  1.44000000E-04  1.69000000E-04  1.96000000E-04
   2.25000000E-04  2.56000000E-04  2.89000000E-04  3.24000000E-04  3.61000000E-04
   4.00000000E-04  4.41000000E-04  4.84000000E-04  5.29000000E-04  5.76000000E-04
   6.25000000E-04  6.76000000E-04  7.29000000E-04  7.84000000E-04  8.41000000E-04
   9.00000000E-04  9.61000000E-04  1.02400000E-03  1.08900000E-03  1.15600000E-03
   1.22500000E-03  1.29600000E-03  1.36900000E-03  1.44400000E-03  1.52100000E-03
   1.60000000E-03  1.68100000E-03  1.76400000E-03  1.84900000E-03  1.93600000E-03
   2.02500000E-03  2.11600000E-03  2.20900000E-03  2.30400000E-03  2.40100000E-03
   2.50000000E-03  2.75625000E-03  3.02500000E-03  3.30625000E-03  3.60000000E-03
   3.90625000E-03  4.22500000E-03  4.55625000E-03  4.90000000E-03  5.25625000E-03
   5.62500000E-03  6.00625000E-03  6.40000000E-03  6.80625000E-03  7.22500000E-03
   7.65625000E-03  8.10000000E-03  8.55625000E-03  9.02500000E-03  9.50625000E-03
   1.00000000E-02  1.10250000E-02  1.21000000E-02  1.32250000E-02  1.44000000E-02
   1.56250000E-02  1.69000000E-02  1.82250000E-02  1.96000000E-02  2.10250000E-02
   2.25000000E-02  2.40250000E-02  2.56000000E-02  2.72250000E-02  2.89000000E-02
   3.06250000E-02  3.24000000E-02  3.42250000E-02  3.61000000E-02  3.80250000E-02
   4.00000000E-02  4.41000000E-02  4.84000000E-02  5.29000000E-02  5.76000000E-02
   6.25000000E-02  6.76000000E-02  7.29000000E-02  7.84000000E-02  8.41000000E-02
   9.00000000E-02  9.61000000E-02  1.02400000E-01  1.08900000E-01  1.15600000E-01
   1.22500000E-01  1.29600000E-01  1.36900000E-01  1.44400000E-01  1.52100000E-01
   1.60000000E-01  1.55000000E-01  1.50000000E-01  1.45000000E-01  1.40000000E-01
   1.35000000E-01  1.30000000E-01  1.25000000E-01  1.20000000E-01  1.15000000E-01
   1.10000000E-01  1.05000000E-01  1.00000000E-01  9.50000000E-02  9.00000000E-02
   8.50000000E-02  8.00000000E-02  7.50000000E-02  7.00000000E-02  6.50000000E-02
   6.00000000E-02  5.50000000E-02  5.00000000E-02  4.50000000E-02  4.00000000E-02
   3.50000000E-02  3.00000000E-02  2.50000000E-02  2.00000000E-02  1.50000000E-02
   1.00000000E-02  7.50000000E-03  5.00000000E-03  2.50000000E-03  1.00000000E-03
   5.00000000E-04  2.00000000E-04  1.00000000E-04  5.00000000E-05  2.00000000E-05
   1.00000000E-05  5.00000000E-06  2.00000000E-06  1.00000000E-06  5.00000000E-07
   2.00000000E-07  1.00000000E-07  5.00000000E-08  2.00000000E-08  1.00000000E-08
   0.00000000E+00  0.00000000E+00  0.00000000E+00  0.00000000E+00  0.00000000E+00
   0.00000000E+00  0.00000000E+00  0.00000000E+00  0.00000000E+00  0.00000000E+00
   0.00000000E+00  0.00000000E+00  0.00000000E+00  0.00000000E+00  0.00000000E+00
   0.00000000E+00  0.00000000E+00  0.00000000E+00  0.00000000E+00  0.00000000E+00
   0.00000000E+00  0.00000000E+00  0.00000000E+00  0.00000000E+00  0.00000000E+00
   0.00000000E+00  0.00000000E+00  0.00000000E+00  0.00000000E+00  0.00000000E+00
   0.00000000E+00  0.00000000E+00  0.00000000E+00  0.00000000E+00  0.00000000E+00
   0.00000000E+00  0.00000000E+00  0.00000000E+00  0.00000000E+00  0.00000000E+00
</PP_RHOATOM>
</UPF>
